# Model for PE

      201     atoms
      200     bonds
  #    19    angles
#      18     dihedrals

         1     atom types
         1     bond types
   #      1     angle types
   #      1     dihedral types
   #      0     impropers

    0.0000   255.000 xlo xhi
    0.0000   255.000 ylo yhi
    0.0000   255.000 zlo zhi

Masses

         1          1.0
 #        2          24.02


Atoms

           1           1           1   25.000000000000000        125.00000000000000        125.00000000000000     
           2           1           1   26.000000000000000        125.00000000000000        125.00000000000000     
           3           1           1   27.000000000000000        125.00000000000000        125.00000000000000     
           4           1           1   28.000000000000000        125.00000000000000        125.00000000000000     
           5           1           1   29.000000000000000        125.00000000000000        125.00000000000000     
           6           1           1   30.000000000000000        125.00000000000000        125.00000000000000     
           7           1           1   31.000000000000000        125.00000000000000        125.00000000000000     
           8           1           1   32.000000000000000        125.00000000000000        125.00000000000000     
           9           1           1   33.000000000000000        125.00000000000000        125.00000000000000     
          10           1           1   34.000000000000000        125.00000000000000        125.00000000000000     
          11           1           1   35.000000000000000        125.00000000000000        125.00000000000000     
          12           1           1   36.000000000000000        125.00000000000000        125.00000000000000     
          13           1           1   37.000000000000000        125.00000000000000        125.00000000000000     
          14           1           1   38.000000000000000        125.00000000000000        125.00000000000000     
          15           1           1   39.000000000000000        125.00000000000000        125.00000000000000     
          16           1           1   40.000000000000000        125.00000000000000        125.00000000000000     
          17           1           1   41.000000000000000        125.00000000000000        125.00000000000000     
          18           1           1   42.000000000000000        125.00000000000000        125.00000000000000     
          19           1           1   43.000000000000000        125.00000000000000        125.00000000000000     
          20           1           1   44.000000000000000        125.00000000000000        125.00000000000000     
          21           1           1   45.000000000000000        125.00000000000000        125.00000000000000     
          22           1           1   46.000000000000000        125.00000000000000        125.00000000000000     
          23           1           1   47.000000000000000        125.00000000000000        125.00000000000000     
          24           1           1   48.000000000000000        125.00000000000000        125.00000000000000     
          25           1           1   49.000000000000000        125.00000000000000        125.00000000000000     
          26           1           1   50.000000000000000        125.00000000000000        125.00000000000000     
          27           1           1   51.000000000000000        125.00000000000000        125.00000000000000     
          28           1           1   52.000000000000000        125.00000000000000        125.00000000000000     
          29           1           1   53.000000000000000        125.00000000000000        125.00000000000000     
          30           1           1   54.000000000000000        125.00000000000000        125.00000000000000     
          31           1           1   55.000000000000000        125.00000000000000        125.00000000000000     
          32           1           1   56.000000000000000        125.00000000000000        125.00000000000000     
          33           1           1   57.000000000000000        125.00000000000000        125.00000000000000     
          34           1           1   58.000000000000000        125.00000000000000        125.00000000000000     
          35           1           1   59.000000000000000        125.00000000000000        125.00000000000000     
          36           1           1   60.000000000000000        125.00000000000000        125.00000000000000     
          37           1           1   61.000000000000000        125.00000000000000        125.00000000000000     
          38           1           1   62.000000000000000        125.00000000000000        125.00000000000000     
          39           1           1   63.000000000000000        125.00000000000000        125.00000000000000     
          40           1           1   64.000000000000000        125.00000000000000        125.00000000000000     
          41           1           1   65.000000000000000        125.00000000000000        125.00000000000000     
          42           1           1   66.000000000000000        125.00000000000000        125.00000000000000     
          43           1           1   67.000000000000000        125.00000000000000        125.00000000000000     
          44           1           1   68.000000000000000        125.00000000000000        125.00000000000000     
          45           1           1   69.000000000000000        125.00000000000000        125.00000000000000     
          46           1           1   70.000000000000000        125.00000000000000        125.00000000000000     
          47           1           1   71.000000000000000        125.00000000000000        125.00000000000000     
          48           1           1   72.000000000000000        125.00000000000000        125.00000000000000     
          49           1           1   73.000000000000000        125.00000000000000        125.00000000000000     
          50           1           1   74.000000000000000        125.00000000000000        125.00000000000000     
          51           1           1   75.000000000000000        125.00000000000000        125.00000000000000     
          52           1           1   76.000000000000000        125.00000000000000        125.00000000000000     
          53           1           1   77.000000000000000        125.00000000000000        125.00000000000000     
          54           1           1   78.000000000000000        125.00000000000000        125.00000000000000     
          55           1           1   79.000000000000000        125.00000000000000        125.00000000000000     
          56           1           1   80.000000000000000        125.00000000000000        125.00000000000000     
          57           1           1   81.000000000000000        125.00000000000000        125.00000000000000     
          58           1           1   82.000000000000000        125.00000000000000        125.00000000000000     
          59           1           1   83.000000000000000        125.00000000000000        125.00000000000000     
          60           1           1   84.000000000000000        125.00000000000000        125.00000000000000     
          61           1           1   85.000000000000000        125.00000000000000        125.00000000000000     
          62           1           1   86.000000000000000        125.00000000000000        125.00000000000000     
          63           1           1   87.000000000000000        125.00000000000000        125.00000000000000     
          64           1           1   88.000000000000000        125.00000000000000        125.00000000000000     
          65           1           1   89.000000000000000        125.00000000000000        125.00000000000000     
          66           1           1   90.000000000000000        125.00000000000000        125.00000000000000     
          67           1           1   91.000000000000000        125.00000000000000        125.00000000000000     
          68           1           1   92.000000000000000        125.00000000000000        125.00000000000000     
          69           1           1   93.000000000000000        125.00000000000000        125.00000000000000     
          70           1           1   94.000000000000000        125.00000000000000        125.00000000000000     
          71           1           1   95.000000000000000        125.00000000000000        125.00000000000000     
          72           1           1   96.000000000000000        125.00000000000000        125.00000000000000     
          73           1           1   97.000000000000000        125.00000000000000        125.00000000000000     
          74           1           1   98.000000000000000        125.00000000000000        125.00000000000000     
          75           1           1   99.000000000000000        125.00000000000000        125.00000000000000     
          76           1           1   100.00000000000000        125.00000000000000        125.00000000000000     
          77           1           1   101.00000000000000        125.00000000000000        125.00000000000000     
          78           1           1   102.00000000000000        125.00000000000000        125.00000000000000     
          79           1           1   103.00000000000000        125.00000000000000        125.00000000000000     
          80           1           1   104.00000000000000        125.00000000000000        125.00000000000000     
          81           1           1   105.00000000000000        125.00000000000000        125.00000000000000     
          82           1           1   106.00000000000000        125.00000000000000        125.00000000000000     
          83           1           1   107.00000000000000        125.00000000000000        125.00000000000000     
          84           1           1   108.00000000000000        125.00000000000000        125.00000000000000     
          85           1           1   109.00000000000000        125.00000000000000        125.00000000000000     
          86           1           1   110.00000000000000        125.00000000000000        125.00000000000000     
          87           1           1   111.00000000000000        125.00000000000000        125.00000000000000     
          88           1           1   112.00000000000000        125.00000000000000        125.00000000000000     
          89           1           1   113.00000000000000        125.00000000000000        125.00000000000000     
          90           1           1   114.00000000000000        125.00000000000000        125.00000000000000     
          91           1           1   115.00000000000000        125.00000000000000        125.00000000000000     
          92           1           1   116.00000000000000        125.00000000000000        125.00000000000000     
          93           1           1   117.00000000000000        125.00000000000000        125.00000000000000     
          94           1           1   118.00000000000000        125.00000000000000        125.00000000000000     
          95           1           1   119.00000000000000        125.00000000000000        125.00000000000000     
          96           1           1   120.00000000000000        125.00000000000000        125.00000000000000     
          97           1           1   121.00000000000000        125.00000000000000        125.00000000000000     
          98           1           1   122.00000000000000        125.00000000000000        125.00000000000000     
          99           1           1   123.00000000000000        125.00000000000000        125.00000000000000     
         100           1           1   124.00000000000000        125.00000000000000        125.00000000000000     
         101           1           1   125.00000000000000        125.00000000000000        125.00000000000000     
         102           1           1   125.00000000000000        126.00000000000000        125.00000000000000     
         103           1           1   125.00000000000000        127.00000000000000        125.00000000000000     
         104           1           1   125.00000000000000        128.00000000000000        125.00000000000000     
         105           1           1   125.00000000000000        129.00000000000000        125.00000000000000     
         106           1           1   125.00000000000000        130.00000000000000        125.00000000000000     
         107           1           1   125.00000000000000        131.00000000000000        125.00000000000000     
         108           1           1   125.00000000000000        132.00000000000000        125.00000000000000     
         109           1           1   125.00000000000000        133.00000000000000        125.00000000000000     
         110           1           1   125.00000000000000        134.00000000000000        125.00000000000000     
         111           1           1   125.00000000000000        135.00000000000000        125.00000000000000     
         112           1           1   125.00000000000000        136.00000000000000        125.00000000000000     
         113           1           1   125.00000000000000        137.00000000000000        125.00000000000000     
         114           1           1   125.00000000000000        138.00000000000000        125.00000000000000     
         115           1           1   125.00000000000000        139.00000000000000        125.00000000000000     
         116           1           1   125.00000000000000        140.00000000000000        125.00000000000000     
         117           1           1   125.00000000000000        141.00000000000000        125.00000000000000     
         118           1           1   125.00000000000000        142.00000000000000        125.00000000000000     
         119           1           1   125.00000000000000        143.00000000000000        125.00000000000000     
         120           1           1   125.00000000000000        144.00000000000000        125.00000000000000     
         121           1           1   125.00000000000000        145.00000000000000        125.00000000000000     
         122           1           1   125.00000000000000        146.00000000000000        125.00000000000000     
         123           1           1   125.00000000000000        147.00000000000000        125.00000000000000     
         124           1           1   125.00000000000000        148.00000000000000        125.00000000000000     
         125           1           1   125.00000000000000        149.00000000000000        125.00000000000000     
         126           1           1   125.00000000000000        150.00000000000000        125.00000000000000     
         127           1           1   125.00000000000000        151.00000000000000        125.00000000000000     
         128           1           1   125.00000000000000        152.00000000000000        125.00000000000000     
         129           1           1   125.00000000000000        153.00000000000000        125.00000000000000     
         130           1           1   125.00000000000000        154.00000000000000        125.00000000000000     
         131           1           1   125.00000000000000        155.00000000000000        125.00000000000000     
         132           1           1   125.00000000000000        156.00000000000000        125.00000000000000     
         133           1           1   125.00000000000000        157.00000000000000        125.00000000000000     
         134           1           1   125.00000000000000        158.00000000000000        125.00000000000000     
         135           1           1   125.00000000000000        159.00000000000000        125.00000000000000     
         136           1           1   125.00000000000000        160.00000000000000        125.00000000000000     
         137           1           1   125.00000000000000        161.00000000000000        125.00000000000000     
         138           1           1   125.00000000000000        162.00000000000000        125.00000000000000     
         139           1           1   125.00000000000000        163.00000000000000        125.00000000000000     
         140           1           1   125.00000000000000        164.00000000000000        125.00000000000000     
         141           1           1   125.00000000000000        165.00000000000000        125.00000000000000     
         142           1           1   125.00000000000000        166.00000000000000        125.00000000000000     
         143           1           1   125.00000000000000        167.00000000000000        125.00000000000000     
         144           1           1   125.00000000000000        168.00000000000000        125.00000000000000     
         145           1           1   125.00000000000000        169.00000000000000        125.00000000000000     
         146           1           1   125.00000000000000        170.00000000000000        125.00000000000000     
         147           1           1   125.00000000000000        171.00000000000000        125.00000000000000     
         148           1           1   125.00000000000000        172.00000000000000        125.00000000000000     
         149           1           1   125.00000000000000        173.00000000000000        125.00000000000000     
         150           1           1   125.00000000000000        174.00000000000000        125.00000000000000     
         151           1           1   125.00000000000000        175.00000000000000        125.00000000000000     
         152           1           1   125.00000000000000        176.00000000000000        125.00000000000000     
         153           1           1   125.00000000000000        177.00000000000000        125.00000000000000     
         154           1           1   125.00000000000000        178.00000000000000        125.00000000000000     
         155           1           1   125.00000000000000        179.00000000000000        125.00000000000000     
         156           1           1   125.00000000000000        180.00000000000000        125.00000000000000     
         157           1           1   125.00000000000000        181.00000000000000        125.00000000000000     
         158           1           1   125.00000000000000        182.00000000000000        125.00000000000000     
         159           1           1   125.00000000000000        183.00000000000000        125.00000000000000     
         160           1           1   125.00000000000000        184.00000000000000        125.00000000000000     
         161           1           1   125.00000000000000        185.00000000000000        125.00000000000000     
         162           1           1   125.00000000000000        186.00000000000000        125.00000000000000     
         163           1           1   125.00000000000000        187.00000000000000        125.00000000000000     
         164           1           1   125.00000000000000        188.00000000000000        125.00000000000000     
         165           1           1   125.00000000000000        189.00000000000000        125.00000000000000     
         166           1           1   125.00000000000000        190.00000000000000        125.00000000000000     
         167           1           1   125.00000000000000        191.00000000000000        125.00000000000000     
         168           1           1   125.00000000000000        192.00000000000000        125.00000000000000     
         169           1           1   125.00000000000000        193.00000000000000        125.00000000000000     
         170           1           1   125.00000000000000        194.00000000000000        125.00000000000000     
         171           1           1   125.00000000000000        195.00000000000000        125.00000000000000     
         172           1           1   125.00000000000000        196.00000000000000        125.00000000000000     
         173           1           1   125.00000000000000        197.00000000000000        125.00000000000000     
         174           1           1   125.00000000000000        198.00000000000000        125.00000000000000     
         175           1           1   125.00000000000000        199.00000000000000        125.00000000000000     
         176           1           1   125.00000000000000        200.00000000000000        125.00000000000000     
         177           1           1   125.00000000000000        201.00000000000000        125.00000000000000     
         178           1           1   125.00000000000000        202.00000000000000        125.00000000000000     
         179           1           1   125.00000000000000        203.00000000000000        125.00000000000000     
         180           1           1   125.00000000000000        204.00000000000000        125.00000000000000     
         181           1           1   125.00000000000000        205.00000000000000        125.00000000000000     
         182           1           1   125.00000000000000        206.00000000000000        125.00000000000000     
         183           1           1   125.00000000000000        207.00000000000000        125.00000000000000     
         184           1           1   125.00000000000000        208.00000000000000        125.00000000000000     
         185           1           1   125.00000000000000        209.00000000000000        125.00000000000000     
         186           1           1   125.00000000000000        210.00000000000000        125.00000000000000     
         187           1           1   125.00000000000000        211.00000000000000        125.00000000000000     
         188           1           1   125.00000000000000        212.00000000000000        125.00000000000000     
         189           1           1   125.00000000000000        213.00000000000000        125.00000000000000     
         190           1           1   125.00000000000000        214.00000000000000        125.00000000000000     
         191           1           1   125.00000000000000        215.00000000000000        125.00000000000000     
         192           1           1   125.00000000000000        216.00000000000000        125.00000000000000     
         193           1           1   125.00000000000000        217.00000000000000        125.00000000000000     
         194           1           1   125.00000000000000        218.00000000000000        125.00000000000000     
         195           1           1   125.00000000000000        219.00000000000000        125.00000000000000     
         196           1           1   125.00000000000000        220.00000000000000        125.00000000000000     
         197           1           1   125.00000000000000        221.00000000000000        125.00000000000000     
         198           1           1   125.00000000000000        222.00000000000000        125.00000000000000     
         199           1           1   125.00000000000000        223.00000000000000        125.00000000000000     
         200           1           1   125.00000000000000        224.00000000000000        125.00000000000000     
         201           1           1   125.00000000000000        225.00000000000000        125.00000000000000     

Bonds

           1           1           1           2
           2           1           2           3
           3           1           3           4
           4           1           4           5
           5           1           5           6
           6           1           6           7
           7           1           7           8
           8           1           8           9
           9           1           9          10
          10           1          10          11
          11           1          11          12
          12           1          12          13
          13           1          13          14
          14           1          14          15
          15           1          15          16
          16           1          16          17
          17           1          17          18
          18           1          18          19
          19           1          19          20
          20           1          20          21
          21           1          21          22
          22           1          22          23
          23           1          23          24
          24           1          24          25
          25           1          25          26
          26           1          26          27
          27           1          27          28
          28           1          28          29
          29           1          29          30
          30           1          30          31
          31           1          31          32
          32           1          32          33
          33           1          33          34
          34           1          34          35
          35           1          35          36
          36           1          36          37
          37           1          37          38
          38           1          38          39
          39           1          39          40
          40           1          40          41
          41           1          41          42
          42           1          42          43
          43           1          43          44
          44           1          44          45
          45           1          45          46
          46           1          46          47
          47           1          47          48
          48           1          48          49
          49           1          49          50
          50           1          50          51
          51           1          51          52
          52           1          52          53
          53           1          53          54
          54           1          54          55
          55           1          55          56
          56           1          56          57
          57           1          57          58
          58           1          58          59
          59           1          59          60
          60           1          60          61
          61           1          61          62
          62           1          62          63
          63           1          63          64
          64           1          64          65
          65           1          65          66
          66           1          66          67
          67           1          67          68
          68           1          68          69
          69           1          69          70
          70           1          70          71
          71           1          71          72
          72           1          72          73
          73           1          73          74
          74           1          74          75
          75           1          75          76
          76           1          76          77
          77           1          77          78
          78           1          78          79
          79           1          79          80
          80           1          80          81
          81           1          81          82
          82           1          82          83
          83           1          83          84
          84           1          84          85
          85           1          85          86
          86           1          86          87
          87           1          87          88
          88           1          88          89
          89           1          89          90
          90           1          90          91
          91           1          91          92
          92           1          92          93
          93           1          93          94
          94           1          94          95
          95           1          95          96
          96           1          96          97
          97           1          97          98
          98           1          98          99
          99           1          99         100
         100           1         100         101
         101           1         101         102
         102           1         102         103
         103           1         103         104
         104           1         104         105
         105           1         105         106
         106           1         106         107
         107           1         107         108
         108           1         108         109
         109           1         109         110
         110           1         110         111
         111           1         111         112
         112           1         112         113
         113           1         113         114
         114           1         114         115
         115           1         115         116
         116           1         116         117
         117           1         117         118
         118           1         118         119
         119           1         119         120
         120           1         120         121
         121           1         121         122
         122           1         122         123
         123           1         123         124
         124           1         124         125
         125           1         125         126
         126           1         126         127
         127           1         127         128
         128           1         128         129
         129           1         129         130
         130           1         130         131
         131           1         131         132
         132           1         132         133